ITEM: TIMESTEP
0
ITEM: NUMBER OF ATOMS
768
ITEM: BOX BOUNDS xy xz yz pp pp pp
0.0000000000000000e+00 1.7619660000000000e+01 0.0000000000000000e+00
0.0000000000000000e+00 2.1533130000000000e+01 0.0000000000000000e+00
0.0000000000000000e+00 2.3203440000000001e+01 0.0000000000000000e+00
ITEM: ATOMS id type x y z fx fy fz
1 1 8.15056 8.97629 11.5686 -1.41145 0.257024 0.24837
2 1 8.74413 0.07098 5.88584 0.318122 0.539079 -0.2693
3 1 4.41534 1.8687 11.5777 -2.18556 -0.98296 1.3506
4 1 4.38455 3.62898 5.68171 0.49383 -0.106597 -0.000244027
5 1 8.72335 7.20727 5.79055 -0.426264 -0.59883 0.898491
6 1 8.78519 3.60081 5.85648 1.69975 -0.175094 1.09946
7 1 8.20807 1.82381 11.4332 -1.64422 1.35636 0.261592
8 1 4.40665 0.07948 5.74073 -0.285927 0.589549 -0.896874
9 1 4.35458 7.16166 5.59947 0.940224 -0.349784 1.53554
10 1 4.43383 8.92099 11.5863 -2.17248 1.02709 0.715004
11 1 8.80326 5.40311 0.03804 -0.785563 0.46187 -0.939846
12 1 4.44155 5.4649 0.09356 -0.184365 -1.19564 -1.10332
13 2 1.76094 10.7228 1.76939 4.7448 1.92938 1.4049
14 2 7.13591 1.92211 4.17441 -1.37129 -0.034048 -6.61642
15 2 6.86225 1.78218 7.68757 -0.0419017 0.642025 1.99504
16 2 1.92712 10.6815 9.94527 3.91669 2.62479 -3.54793
17 2 1.78146 3.56556 1.79488 0.0532917 1.6895 0.0997928
18 2 6.8881 5.50473 3.98072 -0.59515 -1.92567 1.23609
19 2 7.1865 5.25865 7.56475 -7.7829 5.98134 1.94883
20 2 1.98644 3.59045 9.94966 2.66855 0.450305 -4.14322
21 2 1.73498 7.14953 1.68003 0.448768 2.99057 2.1118
22 2 7.07556 9.06657 4.10557 -4.34184 -1.51793 -6.18707
23 2 6.7527 8.96971 7.54488 -2.51054 -2.68647 2.47672
24 2 1.63315 7.11662 9.7966 6.64595 0.274767 -5.64696
25 2 6.25678 0.1198 1.7608 -1.26271 -0.116728 3.0713
26 2 2.50249 1.91221 4.03736 -1.35998 0.120723 0.0936253
27 2 2.86408 1.78053 7.53142 -0.695127 -0.353025 5.76235
28 2 5.96316 10.7468 9.89157 -0.711587 -0.56219 -7.22477
29 2 6.1354 3.58419 1.82941 3.49008 2.47855 2.66969
30 2 2.77289 5.47555 3.97528 -4.93189 -3.4222 -3.1119
31 2 2.50375 5.29069 7.37178 -4.35922 3.63574 2.11176
32 2 6.05887 3.6836 9.9961 2.80853 2.44623 -3.17254
33 2 6.08208 7.24883 1.6624 2.28532 -1.25985 5.65624
34 2 2.83662 9.06029 4.12815 -2.23429 2.60192 -8.42868
35 2 2.85431 8.94399 7.58288 -3.23055 -1.73704 4.58031
36 2 6.1183 7.21476 9.82504 -0.497431 -5.45209 -2.37043
37 3 0.19209 10.6913 1.55621 -5.12611 -0.689807 -0.969933
38 3 8.75115 2.02406 4.27832 1.90021 0.0963255 1.29826
39 3 8.4871 1.65604 7.72333 1.74196 -1.38437 -1.12713
40 3 0.32296 0.01511 9.96353 -2.97811 -0.437123 1.13434
41 3 0.19877 3.54752 1.51781 -2.32049 1.29751 -2.13147
42 3 8.49779 5.48882 3.92437 3.07614 -0.722804 2.50416
43 3 8.73542 5.09658 7.6046 6.64586 0.352042 -2.32947
44 3 0.37352 3.44173 9.96705 -1.78106 -1.5841 2.04958
45 3 0.09091 7.21726 1.69405 -1.19951 0.317487 -1.49053
46 3 8.63219 9.13915 4.13044 5.11182 0.671551 2.45964
47 3 8.32082 9.04461 7.44813 5.35562 -0.58643 -0.99357
48 3 0.10302 7.25382 9.8939 -6.27692 0.380881 1.91838
49 3 4.60747 0.25578 1.70498 -0.414088 1.16104 -1.19697
50 3 4.12303 1.85864 4.06415 2.92782 1.26618 2.83739
51 3 4.51197 1.94653 7.1804 0.884851 -0.147818 -0.317134
52 3 4.35498 10.5033 9.97206 -2.02774 -1.16417 1.02189
53 3 4.58929 3.47333 1.77591 -4.10209 0.296744 -0.906256
54 3 4.31907 5.14641 3.95825 3.66432 -1.16022 1.74096
55 3 4.07815 5.53369 7.22098 2.47484 -0.674072 -2.06416
56 3 4.48864 4.01957 10.1031 -3.51596 -0.406481 2.23759
57 3 4.51064 7.35535 1.67148 -4.7556 0.402084 -2.16584
58 3 4.46704 9.25655 3.80075 -1.80487 1.05303 3.28096
59 3 4.44052 8.73452 7.46965 2.49445 0.760857 -1.98437
60 3 4.54495 6.76399 9.82387 -1.05564 1.39352 1.59552
61 3 2.15441 0.13712 3.71405 -0.167767 -2.50369 0.10518
62 3 6.75156 1.89796 2.00678 0.334555 -0.464146 0.0392133
63 3 6.17578 1.89487 9.5031 0.546039 -1.60205 1.39275
64 3 2.36233 10.7545 7.93953 0.384486 -0.199601 -2.23367
65 3 2.01907 3.67734 3.60671 0.557032 0.377441 1.9514
66 3 6.42189 5.44565 2.20288 -1.74767 -0.310872 -2.40696
67 3 6.82013 5.36012 9.64364 0.62676 -0.690183 -0.57558
68 3 2.39596 3.59174 7.9585 -0.769863 -0.614747 -0.230718
69 3 2.39404 7.23366 3.83117 1.22185 1.20064 0.645383
70 3 6.5095 8.98553 1.97317 2.15104 0.248922 0.00113175
71 3 6.58938 8.89892 9.54795 0.816781 2.35971 1.63146
72 3 2.00803 7.31702 7.54712 -0.522429 -2.54298 -0.372105
73 3 6.30093 10.6921 7.97257 0.997801 1.16972 0.621078
74 3 6.47945 9.09108 5.78451 -0.995376 -0.307692 -0.687978
75 3 6.72539 0.07543 3.62281 0.924599 0.0718509 0.116404
76 3 2.10728 1.875 2.15527 0.596696 -1.59632 -1.74927
77 3 2.58203 1.74959 9.59588 0.585904 1.01 -0.123811
78 3 6.57684 3.57332 3.67106 -0.332879 0.758191 1.50311
79 3 2.30388 5.46109 2.03655 0.245482 -1.26648 0.551381
80 3 2.15633 5.48379 9.35868 -1.3051 -1.2276 -1.26397
81 3 6.56835 3.66514 7.74399 -1.52719 -2.92724 1.22694
82 3 6.55186 7.26465 3.71532 0.693818 1.9311 0.113573
83 3 2.169 8.98048 2.1438 0.675859 -0.837864 0.655317
84 3 2.29139 8.867 9.47691 0.386009 -1.14815 -1.0033
85 3 6.45073 7.19933 7.93132 1.2796 -2.72018 -1.36996
86 3 2.31732 10.6849 0.04282 2.05309 0.90738 0.591172
87 3 6.605 1.87622 5.83832 -0.0183212 -0.471637 0.629017
88 3 2.39614 3.83114 0.02346 1.84088 -0.751442 1.07278
89 3 6.71533 5.30883 5.82055 0.704315 -0.489722 -1.17194
90 3 2.1503 7.15361 11.5484 2.00177 -1.07348 -0.426611
91 3 6.61941 0.177 11.4554 3.7946 -0.0154078 1.968
92 3 2.15917 2.01695 5.95805 -1.52254 -0.653956 -1.68382
93 3 6.60031 3.68408 0.06214 1.42382 -1.51585 1.05577
94 3 2.22324 5.17589 5.61176 -1.16461 -1.05621 0.612024
95 3 6.51889 7.08294 0.02019 2.07396 0.806206 -0.856403
96 3 2.52324 9.08267 5.77534 -1.45602 -0.152618 0.709347
385 1 8.15056 8.97629 23.1703 0.779021 0.000426048 -0.323603
386 1 8.74413 0.07098 17.4876 1.41741 0.83059 0.611148
387 1 4.41534 1.8687 23.1794 -2.43205 -1.20246 1.60356
388 1 4.38455 3.62898 17.2834 -0.216283 -1.32925 1.30407
389 1 8.72335 7.20727 17.3923 0.626081 -0.742114 -0.10086
390 1 8.78519 3.60081 17.4582 2.23753 -0.684518 -0.923006
391 1 8.20807 1.82381 23.035 -1.2298 0.714704 -0.370918
392 1 4.40665 0.07948 17.3424 -0.28985 1.67088 -1.09444
393 1 4.35458 7.16166 17.2012 1.98931 -0.132029 0.0602789
394 1 4.43383 8.92099 23.1881 -0.503671 -1.02876 -0.931957
395 1 8.80326 5.40311 11.6398 -1.04879 -0.485049 -0.809083
396 1 4.44155 5.4649 11.6953 -1.00342 -1.26736 0.668017
397 2 1.76094 10.7228 13.3711 2.81178 0.61089 4.14519
398 2 7.13591 1.92211 15.7761 -2.99773 -3.3382 -4.78723
399 2 6.86225 1.78218 19.2893 -1.78519 -0.28858 1.85877
400 2 1.92712 10.6815 21.547 0.715572 -0.118962 -4.97102
401 2 1.78146 3.56556 13.3966 1.40732 3.38013 -1.15459
402 2 6.8881 5.50473 15.5824 -1.72617 -1.6322 -1.39973
403 2 7.1865 5.25865 19.1665 -6.12697 3.11679 3.11887
404 2 1.98644 3.59045 21.5514 0.378784 -1.88597 -5.39394
405 2 1.73498 7.14953 13.2818 -0.721104 3.22393 4.15328
406 2 7.07556 9.06657 15.7073 -7.6863 1.22798 -2.97839
407 2 6.7527 8.96971 19.1466 -4.69723 -0.524081 1.20135
408 2 1.63315 7.11662 21.3983 5.90942 2.52339 -5.45422
409 2 6.25678 0.1198 13.3625 -2.75939 0.327733 3.69585
410 2 2.50249 1.91221 15.6391 -0.513241 0.432646 0.676331
411 2 2.86408 1.78053 19.1331 -1.52043 -0.960529 2.75177
412 2 5.96316 10.7468 21.4933 2.01772 -0.793374 -6.68637
413 2 6.1354 3.58419 13.4311 3.58841 0.204013 2.81576
414 2 2.77289 5.47555 15.577 -4.3229 -2.94325 -6.46542
415 2 2.50375 5.29069 18.9735 -1.39875 3.01007 2.16606
416 2 6.05887 3.6836 21.5978 3.64911 2.27915 -6.78909
417 2 6.08208 7.24883 13.2641 2.89225 0.764659 7.72239
418 2 2.83662 9.06029 15.7299 0.723556 -0.416885 -9.17916
419 2 2.85431 8.94399 19.1846 -3.66724 1.30379 5.66899
420 2 6.1183 7.21476 21.4268 -1.08241 -5.32539 -3.16583
421 3 0.19209 10.6913 13.1579 -3.64614 0.885458 -0.516503
422 3 8.75115 2.02406 15.88 2.44816 -0.498749 1.20029
423 3 8.4871 1.65604 19.3251 1.73581 -0.0223099 -1.05322
424 3 0.32296 0.01511 21.5652 -2.65016 -0.53745 0.557949
425 3 0.19877 3.54752 13.1195 -1.92583 0.508405 -1.44724
426 3 8.49779 5.48882 15.5261 1.11629 -0.390032 1.70196
427 3 8.73542 5.09658 19.2063 5.73475 -1.13976 -2.44279
428 3 0.37352 3.44173 21.5688 -3.38698 -0.218883 1.72971
429 3 0.09091 7.21726 13.2958 -0.523751 -0.445873 -0.912606
430 3 8.63219 9.13915 15.7322 5.52044 -1.04788 0.894005
431 3 8.32082 9.04461 19.0498 5.33674 -0.73818 -2.44121
432 3 0.10302 7.25382 21.4956 -6.93701 0.175979 0.823514
433 3 4.60747 0.25578 13.3067 -0.863334 1.14308 -1.52339
434 3 4.12303 1.85864 15.6659 0.859113 0.166507 1.55608
435 3 4.51197 1.94653 18.7821 -0.0240478 -0.491325 -0.449877
436 3 4.35498 10.5033 21.5738 -0.870419 -0.762068 2.19271
437 3 4.58929 3.47333 13.3776 -4.21506 0.20459 -1.34514
438 3 4.31907 5.14641 15.56 4.34767 -0.646512 2.02131
439 3 4.07815 5.53369 18.8227 2.23901 -0.100416 -1.90428
440 3 4.48864 4.01957 21.7048 -4.01023 0.840356 1.548
441 3 4.51064 7.35535 13.2732 -4.15994 -0.0891407 -1.72298
442 3 4.46704 9.25655 15.4025 -0.539709 0.307448 3.53154
443 3 4.44052 8.73452 19.0714 2.10924 -0.868637 -0.333721
444 3 4.54495 6.76399 21.4256 -1.39736 1.56919 2.68862
445 3 2.15441 0.13712 15.3158 0.830808 -2.72078 1.00801
446 3 6.75156 1.89796 13.6085 2.22157 -1.15121 -0.931492
447 3 6.17578 1.89487 21.1048 0.673668 -1.71688 0.767543
448 3 2.36233 10.7545 19.5413 1.42413 -1.00823 -0.992174
449 3 2.01907 3.67734 15.2084 1.01123 1.10012 1.43378
450 3 6.42189 5.44565 13.8046 -1.72578 -0.598728 -3.36241
451 3 6.82013 5.36012 21.2454 -0.671433 0.982613 0.446316
452 3 2.39596 3.59174 19.5602 0.140865 -1.82323 0.293682
453 3 2.39404 7.23366 15.4329 0.407176 -0.213801 0.598197
454 3 6.5095 8.98553 13.5749 1.61781 1.0545 -1.34834
455 3 6.58938 8.89892 21.1497 -0.311332 3.07414 2.79667
456 3 2.00803 7.31702 19.1488 -0.550847 -1.10169 -0.479012
457 3 6.30093 10.6921 19.5743 -0.569355 0.879572 -0.569193
458 3 6.47945 9.09108 17.3862 -1.81064 1.01166 -1.10187
459 3 6.72539 0.07543 15.2245 -0.0209998 0.865619 0.547474
460 3 2.10728 1.875 13.757 0.925428 -3.02867 -1.2383
461 3 2.58203 1.74959 21.1976 -1.12773 0.601746 0.964539
462 3 6.57684 3.57332 15.2728 0.171368 0.390264 1.92616
463 3 2.30388 5.46109 13.6383 0.933489 -1.44875 0.771483
464 3 2.15633 5.48379 20.9604 -1.04182 -1.84513 -0.525437
465 3 6.56835 3.66514 19.3457 -1.19257 -3.28581 1.18659
466 3 6.55186 7.26465 15.317 0.12365 0.0442236 1.01307
467 3 2.169 8.98048 13.7455 0.319222 -0.0236885 1.31497
468 3 2.29139 8.867 21.0786 0.448554 -1.07255 -0.782797
469 3 6.45073 7.19933 19.533 1.89381 -0.988127 -0.151971
470 3 2.31732 10.6849 11.6445 1.18793 -0.574908 1.57006
471 3 6.605 1.87622 17.44 -1.43857 -0.646986 -0.680168
472 3 2.39614 3.83114 11.6252 2.34252 0.0587901 2.12752
473 3 6.71533 5.30883 17.4223 0.40673 1.37011 -1.18996
474 3 2.1503 7.15361 23.1501 0.384756 -0.997919 -0.496041
475 3 6.61941 0.177 23.0571 2.41003 1.11316 2.76434
476 3 2.15917 2.01695 17.5598 -1.57838 0.259143 -2.83967
477 3 6.60031 3.68408 11.6639 1.71522 -0.00226356 0.835436
478 3 2.22324 5.17589 17.2135 -1.27701 -1.35524 0.16156
479 3 6.51889 7.08294 11.6219 1.93697 -0.513632 -2.5636
480 3 2.52324 9.08267 17.3771 0.468927 0.0512231 1.84711
193 1 8.15056 19.7429 11.5686 -1.11083 0.696315 0.465255
194 1 8.74413 10.8375 5.88584 0.839064 -0.617143 0.179106
195 1 4.41534 12.6353 11.5777 -0.327828 0.0989961 0.674487
196 1 4.38455 14.3955 5.68171 -0.280851 -1.39439 0.941449
197 1 8.72335 17.9738 5.79055 1.57455 -0.734697 -0.653952
198 1 8.78519 14.3674 5.85648 2.19503 1.16741 0.193015
199 1 8.20807 12.5904 11.4332 1.0759 -0.696468 0.243368
200 1 4.40665 10.846 5.74073 1.89176 0.874983 -0.737309
201 1 4.35458 17.9282 5.59947 0.30524 -0.590369 1.36251
202 1 4.43383 19.6876 11.5863 -0.6972 0.697763 1.10745
203 1 8.80326 16.1697 0.03804 -0.031308 -0.797106 -0.128421
204 1 4.44155 16.2315 0.09356 -0.273111 -0.453444 -0.781582
205 2 1.76094 21.4893 1.76939 2.11294 1.24833 1.59434
206 2 7.13591 12.6887 4.17441 -2.50288 -2.72341 -6.54656
207 2 6.86225 12.5487 7.68757 0.662364 -1.4145 -0.389367
208 2 1.92712 21.4481 9.94527 1.33439 1.93931 -3.67295
209 2 1.78146 14.3321 1.79488 0.338779 2.89532 -1.81089
210 2 6.8881 16.2713 3.98072 0.510117 -3.05445 -0.00957326
211 2 7.1865 16.0252 7.56475 -6.08113 5.23189 1.60673
212 2 1.98644 14.357 9.94966 1.54603 0.488399 -5.54511
213 2 1.73498 17.9161 1.68003 1.55174 3.41958 1.84346
214 2 7.07556 19.8331 4.10557 -5.38683 1.73525 -5.0095
215 2 6.7527 19.7363 7.54488 -2.40864 -2.63739 4.58631
216 2 1.63315 17.8832 9.7966 5.87145 0.333166 -3.90551
217 2 6.25678 10.8864 1.7608 0.226993 0.781159 2.27879
218 2 2.50249 12.6788 4.03736 -1.39374 0.272482 0.611413
219 2 2.86408 12.5471 7.53142 -0.663922 0.156969 5.06666
220 2 5.96316 21.5133 9.89157 2.05933 1.19102 -6.84867
221 2 6.1354 14.3508 1.82941 4.93601 -0.301649 1.67849
222 2 2.77289 16.2421 3.97528 -3.16266 0.387405 -3.88763
223 2 2.50375 16.0573 7.37178 -1.77056 1.99047 5.6085
224 2 6.05887 14.4502 9.9961 3.97635 3.07038 -6.56343
225 2 6.08208 18.0154 1.6624 4.22214 -0.879391 8.31307
226 2 2.83662 19.8269 4.12815 1.17623 2.45836 -9.01375
227 2 2.85431 19.7106 7.58288 -2.65554 0.0454001 3.55658
228 2 6.1183 17.9813 9.82504 0.232462 -4.27308 -4.29096
229 3 0.19209 21.4579 1.55621 -4.81876 0.3729 -1.84597
230 3 8.75115 12.7906 4.27832 2.41564 -0.263264 2.30178
231 3 8.4871 12.4226 7.72333 1.24611 -0.635557 -1.21097
232 3 0.32296 10.7817 9.96353 -2.01074 0.144128 1.44581
233 3 0.19877 14.3141 1.51781 -3.65818 0.439797 -2.36754
234 3 8.49779 16.2554 3.92437 1.00936 0.920619 2.06978
235 3 8.73542 15.8631 7.6046 5.83417 0.138599 -1.9262
236 3 0.37352 14.2083 9.96705 -2.68378 -0.076831 0.687173
237 3 0.09091 17.9838 1.69405 -1.05734 0.715467 -2.01993
238 3 8.63219 19.9057 4.13044 4.42012 0.830944 1.05055
239 3 8.32082 19.8112 7.44813 4.51011 0.940009 -1.5454
240 3 0.10302 18.0204 9.8939 -8.39618 -0.336526 1.93463
241 3 4.60747 11.0223 1.70498 0.792919 1.205 -2.00033
242 3 4.12303 12.6252 4.06415 1.87725 0.661174 1.81301
243 3 4.51197 12.7131 7.1804 1.01187 -0.250965 -1.52424
244 3 4.35498 21.2699 9.97206 -1.3574 -1.41117 0.803695
245 3 4.58929 14.2399 1.77591 -5.56472 -1.20415 -2.97518
246 3 4.31907 15.913 3.95825 3.85 0.260078 2.68526
247 3 4.07815 16.3003 7.22098 3.56189 -0.331736 -1.14986
248 3 4.48864 14.7861 10.1031 -2.95147 0.553989 2.3241
249 3 4.51064 18.1219 1.67148 -3.56355 0.601953 -2.99729
250 3 4.46704 20.0231 3.80075 0.389008 -0.967946 3.44222
251 3 4.44052 19.5011 7.46965 2.16017 -1.24798 -2.19043
252 3 4.54495 17.5306 9.82387 -0.860025 0.158722 0.637688
253 3 2.15441 10.9037 3.71405 0.617962 -1.56396 1.36395
254 3 6.75156 12.6645 2.00678 1.44454 0.154914 0.637604
255 3 6.17578 12.6614 9.5031 1.23345 -0.379902 0.213268
256 3 2.36233 21.5211 7.93953 1.06306 -0.787956 -0.290569
257 3 2.01907 14.4439 3.60671 0.263489 1.8351 3.01282
258 3 6.42189 16.2122 2.20288 -1.82137 0.782541 -1.60921
259 3 6.82013 16.1267 9.64364 1.52689 0.464102 -0.138781
260 3 2.39596 14.3583 7.9585 -0.743139 -0.881177 0.785865
261 3 2.39404 18.0002 3.83117 -0.255849 0.785221 1.07121
262 3 6.5095 19.7521 1.97317 1.13367 0.0294588 -0.628018
263 3 6.58938 19.6655 9.54795 1.14907 2.62304 2.86248
264 3 2.00803 18.0836 7.54712 0.4005 -0.722837 0.74288
265 3 6.30093 21.4586 7.97257 -0.276331 1.00548 0.957473
266 3 6.47945 19.8576 5.78451 -2.39448 0.464005 -0.608807
267 3 6.72539 10.842 3.62281 -0.663974 1.64102 2.02048
268 3 2.10728 12.6416 2.15527 0.817891 -2.1642 -1.77904
269 3 2.58203 12.5162 9.59588 1.0897 -0.416854 1.26892
270 3 6.57684 14.3399 3.67106 0.0300917 0.704708 0.750087
271 3 2.30388 16.2277 2.03655 0.602173 -0.0530646 0.585621
272 3 2.15633 16.2504 9.35868 -0.854852 -1.13895 -0.614701
273 3 6.56835 14.4317 7.74399 -0.969184 -1.97639 1.42444
274 3 6.55186 18.0312 3.71532 -0.917444 0.141588 0.070048
275 3 2.169 19.747 2.1438 0.521052 -0.738492 1.22969
276 3 2.29139 19.6336 9.47691 -0.0225799 -0.789181 0.205808
277 3 6.45073 17.9659 7.93132 1.98489 -0.893886 -1.15752
278 3 2.31732 21.4515 0.04282 1.09712 -0.951721 1.8999
279 3 6.605 12.6428 5.83832 0.229167 -1.56044 0.525505
280 3 2.39614 14.5977 0.02346 1.77577 0.76428 2.43302
281 3 6.71533 16.0754 5.82055 -0.0477552 0.280193 -0.694666
282 3 2.1503 17.9202 11.5484 0.338022 -0.568634 -0.689322
283 3 6.61941 10.9436 11.4554 3.03 1.35416 3.37051
284 3 2.15917 12.7835 5.95805 -0.494107 0.383305 -1.32362
285 3 6.60031 14.4506 0.06214 1.60163 0.583777 1.5634
286 3 2.22324 15.9425 5.61176 -2.49477 -0.521217 0.181096
287 3 6.51889 17.8495 0.02019 2.60533 0.659039 -1.31898
288 3 2.52324 19.8492 5.77534 -1.54829 0.49216 1.70106
577 1 8.15056 19.7429 23.1703 -1.825 1.34378 -0.726244
578 1 8.74413 10.8375 17.4876 1.83439 1.49552 1.50016
579 1 4.41534 12.6353 23.1794 -1.95477 0.248082 0.763522
580 1 4.38455 14.3955 17.2834 0.662806 -0.0359639 -0.198754
581 1 8.72335 17.9738 17.3923 0.547937 -0.976341 -0.875268
582 1 8.78519 14.3674 17.4582 0.323064 -1.41716 -0.712825
583 1 8.20807 12.5904 23.035 -1.06351 -0.740377 -1.07651
584 1 4.40665 10.846 17.3424 0.422034 -0.36561 -0.0629629
585 1 4.35458 17.9282 17.2012 1.62129 -0.15252 -0.197227
586 1 4.43383 19.6876 23.1881 -1.33017 -0.362507 0.0030918
587 1 8.80326 16.1697 11.6398 -1.42369 -1.0284 -0.683565
588 1 4.44155 16.2315 11.6953 -2.22976 -0.128818 -0.215454
589 2 1.76094 21.4893 13.3711 1.30632 -0.301471 3.51058
590 2 7.13591 12.6887 15.7761 -2.05226 -1.59211 -4.51517
591 2 6.86225 12.5487 19.2893 -1.20309 1.67398 1.30384
592 2 1.92712 21.4481 21.547 4.08823 0.174873 -4.54036
593 2 1.78146 14.3321 13.3966 0.441727 0.540714 -0.610895
594 2 6.8881 16.2713 15.5824 1.58394 -3.24933 -0.372882
595 2 7.1865 16.0252 19.1665 -4.03682 4.9402 5.00131
596 2 1.98644 14.357 21.5514 1.08778 0.613063 -5.22929
597 2 1.73498 17.9161 13.2818 1.78424 2.66919 1.16255
598 2 7.07556 19.8331 15.7073 -7.61316 -0.539826 -3.27894
599 2 6.7527 19.7363 19.1466 -1.43528 -2.57944 3.73601
600 2 1.63315 17.8832 21.3983 6.38152 2.47091 -2.96371
601 2 6.25678 10.8864 13.3625 -2.12639 0.438124 3.94892
602 2 2.50249 12.6788 15.6391 -1.09238 -1.30018 -2.76368
603 2 2.86408 12.5471 19.1331 -2.16343 0.579762 3.91622
604 2 5.96316 21.5133 21.4933 0.590112 -1.01463 -6.2279
605 2 6.1354 14.3508 13.4311 4.11946 1.28977 4.68671
606 2 2.77289 16.2421 15.577 -6.35591 0.105418 -4.19482
607 2 2.50375 16.0573 18.9735 -3.72533 0.610507 4.93724
608 2 6.05887 14.4502 21.5978 3.5168 1.82059 -3.49653
609 2 6.08208 18.0154 13.2641 3.73999 -2.08612 5.07201
610 2 2.83662 19.8269 15.7299 0.0771182 1.39349 -7.55275
611 2 2.85431 19.7106 19.1846 -3.70095 1.19859 4.42982
612 2 6.1183 17.9813 21.4268 0.26687 -5.01176 -2.39523
613 3 0.19209 21.4579 13.1579 -5.01651 -0.950551 -1.52239
614 3 8.75115 12.7906 15.88 3.9727 -1.12279 1.74577
615 3 8.4871 12.4226 19.3251 -0.0373175 -0.23901 -0.698244
616 3 0.32296 10.7817 21.5652 -3.99588 1.22415 1.91772
617 3 0.19877 14.3141 13.1195 -2.69331 0.29375 -0.943877
618 3 8.49779 16.2554 15.5261 1.73563 -0.19144 2.48197
619 3 8.73542 15.8631 19.2063 6.09194 -1.66256 -2.93639
620 3 0.37352 14.2083 21.5688 -1.96774 -0.0918284 1.39509
621 3 0.09091 17.9838 13.2958 -1.35389 -0.51167 -0.54291
622 3 8.63219 19.9057 15.7322 4.70805 -0.934662 2.09142
623 3 8.32082 19.8112 19.0498 4.25741 1.20478 -2.24881
624 3 0.10302 18.0204 21.4956 -6.35326 1.1584 1.51846
625 3 4.60747 11.0223 13.3067 -0.354012 0.750356 -1.86766
626 3 4.12303 12.6252 15.6659 2.46133 -0.505438 2.08732
627 3 4.51197 12.7131 18.7821 -0.846587 -1.55715 -1.26337
628 3 4.35498 21.2699 21.5738 -1.7917 -0.625686 2.61427
629 3 4.58929 14.2399 13.3776 -5.21774 -1.33366 -2.91166
630 3 4.31907 15.913 15.56 4.10689 -0.558339 1.04856
631 3 4.07815 16.3003 18.8227 2.44383 1.12502 -0.929049
632 3 4.48864 14.7861 21.7048 -2.2352 0.695116 0.673269
633 3 4.51064 18.1219 13.2732 -4.69553 -0.323221 -1.06603
634 3 4.46704 20.0231 15.4025 0.205828 -0.167575 1.8924
635 3 4.44052 19.5011 19.0714 3.65822 -0.418907 -0.641054
636 3 4.54495 17.5306 21.4256 -1.72971 0.686228 2.43328
637 3 2.15441 10.9037 15.3158 -0.990083 -2.22684 0.609655
638 3 6.75156 12.6645 13.6085 1.34891 -1.70036 -1.15317
639 3 6.17578 12.6614 21.1048 0.123728 -1.36465 0.79369
640 3 2.36233 21.5211 19.5413 1.23614 -0.0197399 -0.158264
641 3 2.01907 14.4439 15.2084 0.353528 1.01144 2.60137
642 3 6.42189 16.2122 13.8046 -1.62346 -0.393941 -1.53056
643 3 6.82013 16.1267 21.2454 0.257533 0.633346 -1.48165
644 3 2.39596 14.3583 19.5602 -0.493628 -1.30859 -0.663115
645 3 2.39404 18.0002 15.4329 -0.382109 0.683354 -0.0742858
646 3 6.5095 19.7521 13.5749 0.855445 1.65369 0.127457
647 3 6.58938 19.6655 21.1497 0.0908795 1.70836 2.35969
648 3 2.00803 18.0836 19.1488 -1.11872 -1.14885 -1.06279
649 3 6.30093 21.4586 19.5743 -1.08066 2.45375 -1.03779
650 3 6.47945 19.8576 17.3862 -1.23296 0.803149 -1.40504
651 3 6.72539 10.842 15.2245 0.47139 2.02682 0.98327
652 3 2.10728 12.6416 13.757 0.613907 -1.99636 -0.486329
653 3 2.58203 12.5162 21.1976 0.227836 1.35932 0.859387
654 3 6.57684 14.3399 15.2728 -0.863519 1.71965 1.2236
655 3 2.30388 16.2277 13.6383 0.021665 -1.25022 0.927502
656 3 2.15633 16.2504 20.9604 -0.535752 -2.63415 0.653847
657 3 6.56835 14.4317 19.3457 -0.210881 -1.58318 1.11057
658 3 6.55186 18.0312 15.317 -1.09846 0.268481 0.302478
659 3 2.169 19.747 13.7455 0.94271 -1.27468 0.357301
660 3 2.29139 19.6336 21.0786 -0.329249 0.492615 -0.653434
661 3 6.45073 17.9659 19.533 1.26208 -2.25792 -1.86267
662 3 2.31732 21.4515 11.6445 0.921525 -0.184392 0.746823
663 3 6.605 12.6428 17.44 -0.307295 0.318033 -0.682321
664 3 2.39614 14.5977 11.6252 1.48658 0.600627 1.61181
665 3 6.71533 16.0754 17.4223 0.0912732 1.29764 -1.19711
666 3 2.1503 17.9202 23.1501 1.47791 -0.926531 0.66542
667 3 6.61941 10.9436 23.0571 2.05732 0.707421 3.82729
668 3 2.15917 12.7835 17.5598 -1.07491 0.0166637 -1.85411
669 3 6.60031 14.4506 11.6639 2.20637 -0.254909 1.56435
670 3 2.22324 15.9425 17.2135 -2.77447 -1.45252 0.0944561
671 3 6.51889 17.8495 11.6219 2.01748 -0.836231 -0.548229
672 3 2.52324 19.8492 17.3771 -1.61692 0.6574 1.80255
97 1 16.9604 8.97629 11.5686 -0.34088 -1.18182 0.784395
98 1 17.554 0.07098 5.88584 0.297622 0.528845 -0.152039
99 1 13.2252 1.8687 11.5777 -0.396767 -0.0100649 0.293421
100 1 13.1944 3.62898 5.68171 -0.0590099 0.122189 0.998355
101 1 17.5332 7.20727 5.79055 1.25724 0.413788 1.22956
102 1 17.595 3.60081 5.85648 1.2147 0.141668 -0.964773
103 1 17.0179 1.82381 11.4332 -1.10738 -0.488083 -0.445402
104 1 13.2165 0.07948 5.74073 0.161642 -0.0997335 0.515443
105 1 13.1644 7.16166 5.59947 0.84516 1.10861 0.00373038
106 1 13.2437 8.92099 11.5863 -1.96018 1.22117 0.575771
107 1 17.6131 5.40311 0.03804 -1.21582 -1.52355 0.771483
108 1 13.2514 5.4649 0.09356 -1.09214 0.454534 -0.414596
109 2 10.5708 10.7228 1.76939 3.3899 1.15938 2.57686
110 2 15.9457 1.92211 4.17441 -3.43936 -1.21367 -4.47146
111 2 15.6721 1.78218 7.68757 -1.76106 -2.03868 -0.966165
112 2 10.737 10.6815 9.94527 1.2235 0.330937 -4.60921
113 2 10.5913 3.56556 1.79488 3.01361 1.23624 -1.9924
114 2 15.6979 5.50473 3.98072 -1.36048 -2.33836 0.539071
115 2 15.9963 5.25865 7.56475 -5.69298 2.85978 4.80641
116 2 10.7963 3.59045 9.94966 2.254 -0.160705 -5.68094
117 2 10.5448 7.14953 1.68003 2.76237 0.685934 3.54588
118 2 15.8854 9.06657 4.10557 -7.5731 1.46292 -6.46416
119 2 15.5625 8.96971 7.54488 -3.54051 -2.78199 0.881183
120 2 10.443 7.11662 9.7966 7.78907 2.09326 -4.76987
121 2 15.0666 0.1198 1.7608 -0.605375 -2.14012 3.2728
122 2 11.3123 1.91221 4.03736 0.168282 -2.04853 0.466932
123 2 11.6739 1.78053 7.53142 0.670748 0.287331 4.43029
124 2 14.773 10.7468 9.89157 0.432495 -1.14729 -7.94849
125 2 14.9452 3.58419 1.82941 3.66943 3.05706 3.87747
126 2 11.5827 5.47555 3.97528 -3.09885 -0.761121 -4.06246
127 2 11.3136 5.29069 7.37178 -3.44693 1.93457 4.32004
128 2 14.8687 3.6836 9.9961 1.46608 1.2335 -3.9858
129 2 14.8919 7.24883 1.6624 5.48026 -0.341043 6.20005
130 2 11.6464 9.06029 4.12815 -2.12563 0.970432 -8.54529
131 2 11.6641 8.94399 7.58288 -1.85414 1.38393 3.41438
132 2 14.9281 7.21476 9.82504 -0.335512 -5.92639 -3.93803
133 3 9.00192 10.6913 1.55621 -3.85549 0.940603 -1.30879
134 3 17.561 2.02406 4.27832 2.72023 0.660786 1.35056
135 3 17.2969 1.65604 7.72333 0.742848 0.695991 -0.901141
136 3 9.13279 0.01511 9.96353 -2.33536 0.918688 1.21509
137 3 9.0086 3.54752 1.51781 -3.15313 1.04592 -1.3667
138 3 17.3076 5.48882 3.92437 2.63891 -0.548396 0.472803
139 3 17.5452 5.09658 7.6046 6.33401 -0.268625 -2.16769
140 3 9.18335 3.44173 9.96705 -3.13435 -1.51868 2.13245
141 3 8.90074 7.21726 1.69405 -1.65285 -0.478736 -0.539826
142 3 17.442 9.13915 4.13044 6.31413 -0.919661 1.50073
143 3 17.1306 9.04461 7.44813 5.51575 0.0327959 -2.56862
144 3 8.91285 7.25382 9.8939 -7.89021 0.826127 2.28857
145 3 13.4173 0.25578 1.70498 -0.511999 1.3044 -2.45452
146 3 12.9329 1.85864 4.06415 1.80318 0.0737833 1.42889
147 3 13.3218 1.94653 7.1804 -1.09977 -1.28361 -0.830424
148 3 13.1648 10.5033 9.97206 -0.544859 0.171985 1.23158
149 3 13.3991 3.47333 1.77591 -5.47788 0.467718 -1.11772
150 3 13.1289 5.14641 3.95825 3.82864 -1.03357 2.29851
151 3 12.888 5.53369 7.22098 2.72159 0.000161747 -0.883677
152 3 13.2985 4.01957 10.1031 -2.63993 0.0791536 1.35479
153 3 13.3205 7.35535 1.67148 -4.14947 -0.857664 -3.29214
154 3 13.2769 9.25655 3.80075 -0.535176 0.339054 2.68906
155 3 13.2504 8.73452 7.46965 3.36572 0.129857 -0.678802
156 3 13.3548 6.76399 9.82387 -0.387366 0.940102 1.57393
157 3 10.9642 0.13712 3.71405 -0.39995 -2.16201 0.88666
158 3 15.5614 1.89796 2.00678 2.04482 -1.52041 -1.1755
159 3 14.9856 1.89487 9.5031 -0.152682 -1.11004 1.54656
160 3 11.1722 10.7545 7.93953 -0.221488 0.193961 -1.38498
161 3 10.8289 3.67734 3.60671 1.25382 1.0901 0.957544
162 3 15.2317 5.44565 2.20288 -0.372776 0.392677 -3.18489
163 3 15.63 5.36012 9.64364 1.00227 0.912451 -1.16305
164 3 11.2058 3.59174 7.9585 -0.712525 -2.48361 -0.321469
165 3 11.2039 7.23366 3.83117 0.390513 -0.0341267 -0.351658
166 3 15.3193 8.98553 1.97317 2.25781 0.748709 -1.69121
167 3 15.3992 8.89892 9.54795 -0.750422 3.1309 2.78217
168 3 10.8179 7.31702 7.54712 -1.01549 -0.925021 -0.749006
169 3 15.1108 10.6921 7.97257 0.685175 2.71023 0.632957
170 3 15.2893 9.09108 5.78451 -0.483119 0.0799508 -1.61861
171 3 15.5352 0.07543 3.62281 0.816097 0.683324 -0.0360714
172 3 10.9171 1.875 2.15527 1.37857 -2.34538 -1.64123
173 3 11.3919 1.74959 9.59588 0.610766 1.17 1.17479
174 3 15.3867 3.57332 3.67106 -0.708917 1.67475 1.81626
175 3 11.1137 5.46109 2.03655 0.546119 -0.188727 0.310125
176 3 10.9662 5.48379 9.35868 -0.731932 -2.55736 -0.772919
177 3 15.3782 3.66514 7.74399 -2.215 -2.20806 2.11141
178 3 15.3617 7.26465 3.71532 0.0522367 1.35216 1.35547
179 3 10.9788 8.98048 2.1438 1.07731 -0.855438 1.21331
180 3 11.1012 8.867 9.47691 -0.765888 0.111104 -0.63026
181 3 15.2606 7.19933 7.93132 2.29391 -0.898611 -1.21958
182 3 11.1272 10.6849 0.04282 0.998891 -0.491004 2.18718
183 3 15.4148 1.87622 5.83832 -1.19388 -0.427055 0.243973
184 3 11.206 3.83114 0.02346 2.04527 -0.986648 1.5767
185 3 15.5252 5.30883 5.82055 -0.753675 0.516734 -1.42795
186 3 10.9601 7.15361 11.5484 1.89173 0.435346 0.417558
187 3 15.4292 0.177 11.4554 1.67829 1.23438 2.16283
188 3 10.969 2.01695 5.95805 -0.480404 0.612012 -1.70483
189 3 15.4101 3.68408 0.06214 1.09258 0.147799 1.47243
190 3 11.0331 5.17589 5.61176 -1.73581 -0.279608 0.314646
191 3 15.3287 7.08294 0.02019 1.05992 0.165121 -1.68867
192 3 11.3331 9.08267 5.77534 -0.99964 1.00484 2.26942
481 1 16.9604 8.97629 23.1703 -0.843531 1.41034 0.210735
482 1 17.554 0.07098 17.4876 0.468959 1.29781 0.780445
483 1 13.2252 1.8687 23.1794 -2.0197 1.17331 -1.01014
484 1 13.1944 3.62898 17.2834 -0.315767 -0.875972 0.939289
485 1 17.5332 7.20727 17.3923 2.27293 0.792163 -1.04008
486 1 17.595 3.60081 17.4582 2.44463 -0.470235 1.07592
487 1 17.0179 1.82381 23.035 -0.181522 -1.15413 -0.566939
488 1 13.2165 0.07948 17.3424 0.364271 0.635784 -0.786232
489 1 13.1644 7.16166 17.2012 1.05639 0.148557 1.15309
490 1 13.2437 8.92099 23.1881 -0.411612 -0.779659 -0.600815
491 1 17.6131 5.40311 11.6398 -1.13522 -0.422284 -0.355169
492 1 13.2514 5.4649 11.6953 -0.741199 -0.0905304 -1.96194
493 2 10.5708 10.7228 13.3711 2.68035 2.32861 2.48827
494 2 15.9457 1.92211 15.7761 -2.97489 -1.05181 -5.11225
495 2 15.6721 1.78218 19.2893 -2.77973 1.94141 2.61262
496 2 10.737 10.6815 21.547 4.29776 1.03232 -3.63424
497 2 10.5913 3.56556 13.3966 0.286387 0.145304 -0.41546
498 2 15.6979 5.50473 15.5824 0.684174 -1.76876 0.200791
499 2 15.9963 5.25865 19.1665 -6.55532 3.63433 4.99108
500 2 10.7963 3.59045 21.5514 1.02774 -1.99779 -2.37935
501 2 10.5448 7.14953 13.2818 2.16102 2.97586 1.17976
502 2 15.8854 9.06657 15.7073 -4.94308 1.60585 -3.78096
503 2 15.5625 8.96971 19.1466 -3.92637 -1.97563 3.39105
504 2 10.443 7.11662 21.3983 7.70358 3.52014 -1.86721
505 2 15.0666 0.1198 13.3625 0.466711 -2.21044 4.11941
506 2 11.3123 1.91221 15.6391 -1.67283 0.356074 -3.12968
507 2 11.6739 1.78053 19.1331 -1.24656 0.50885 5.99482
508 2 14.773 10.7468 21.4933 1.78898 -1.44343 -6.86391
509 2 14.9452 3.58419 13.4311 3.49036 2.09929 2.48644
510 2 11.5827 5.47555 15.577 -4.8484 -2.13024 -4.60214
511 2 11.3136 5.29069 18.9735 -4.27565 3.66226 4.40441
512 2 14.8687 3.6836 21.5978 1.63172 1.64424 -3.44759
513 2 14.8919 7.24883 13.2641 5.2825 0.387545 4.82171
514 2 11.6464 9.06029 15.7299 -0.971056 2.01134 -8.34269
515 2 11.6641 8.94399 19.1846 -2.86653 -0.793303 3.82416
516 2 14.9281 7.21476 21.4268 -1.69559 -4.62856 -4.63049
517 3 9.00192 10.6913 13.1579 -4.24346 -0.954802 -0.358002
518 3 17.561 2.02406 15.88 2.84952 0.16268 0.87353
519 3 17.2969 1.65604 19.3251 0.266492 0.241296 -1.15312
520 3 9.13279 0.01511 21.5652 -3.70549 0.247986 1.21957
521 3 9.0086 3.54752 13.1195 -2.3325 0.612723 -0.946941
522 3 17.3076 5.48882 15.5261 2.66402 0.636041 1.96651
523 3 17.5452 5.09658 19.2063 6.18281 0.462828 -2.94766
524 3 9.18335 3.44173 21.5688 -3.04138 -0.746012 1.09081
525 3 8.90074 7.21726 13.2958 -0.390981 -0.563503 -1.36996
526 3 17.442 9.13915 15.7322 5.45999 -0.811031 2.25805
527 3 17.1306 9.04461 19.0498 4.547 -0.369188 -1.32185
528 3 8.91285 7.25382 21.4956 -6.86844 0.804456 2.62711
529 3 13.4173 0.25578 13.3067 0.801368 1.17033 -1.69264