
0.000000000 8.809830000 xlo xhi
0.000000000 10.766565000 ylo yhi
0.000000000 11.601720000 zlo zhi
0.000000000 0.000000000 0.000000000 xy xz yz

96 atoms

3 atom types

Atoms

     1     1          8.15056000          8.97629000         11.56861000
     2     1          8.74413000          0.07098000          5.88584000
     3     1          4.41534000          1.86870000         11.57770000
     4     1          4.38455000          3.62898000          5.68171000
     5     1          8.72335000          7.20727000          5.79055000
     6     1          8.78519000          3.60081000          5.85648000
     7     1          8.20807000          1.82381000         11.43323000
     8     1          4.40665000          0.07948000          5.74073000
     9     1          4.35458000          7.16166000          5.59947000
    10     1          4.43383000          8.92099000         11.58635000
    11     1          8.80326000          5.40311000          0.03804000
    12     1          4.44155000          5.46490000          0.09356000
    13     2          1.76094000         10.72276000          1.76939000
    14     2          7.13591000          1.92211000          4.17441000
    15     2          6.86225000          1.78218000          7.68757000
    16     2          1.92712000         10.68155000          9.94527000
    17     2          1.78146000          3.56556000          1.79488000
    18     2          6.88810000          5.50473000          3.98072000
    19     2          7.18650000          5.25865000          7.56475000
    20     2          1.98644000          3.59045000          9.94966000
    21     2          1.73498000          7.14953000          1.68003000
    22     2          7.07556000          9.06657000          4.10557000
    23     2          6.75270000          8.96971000          7.54488000
    24     2          1.63315000          7.11662000          9.79660000
    25     2          6.25678000          0.11980000          1.76080000
    26     2          2.50249000          1.91221000          4.03736000
    27     2          2.86408000          1.78053000          7.53142000
    28     2          5.96316000         10.74677000          9.89157000
    29     2          6.13540000          3.58419000          1.82941000
    30     2          2.77289000          5.47555000          3.97528000
    31     2          2.50375000          5.29069000          7.37178000
    32     2          6.05887000          3.68360000          9.99610000
    33     2          6.08208000          7.24883000          1.66240000
    34     2          2.83662000          9.06029000          4.12815000
    35     2          2.85431000          8.94399000          7.58288000
    36     2          6.11830000          7.21476000          9.82504000
    37     3          0.19209000         10.69129000          1.55621000
    38     3          8.75115000          2.02406000          4.27832000
    39     3          8.48710000          1.65604000          7.72333000
    40     3          0.32296000          0.01511000          9.96353000
    41     3          0.19877000          3.54752000          1.51781000
    42     3          8.49779000          5.48882000          3.92437000
    43     3          8.73542000          5.09658000          7.60460000
    44     3          0.37352000          3.44173000          9.96705000
    45     3          0.09091000          7.21726000          1.69405000
    46     3          8.63219000          9.13915000          4.13044000
    47     3          8.32082000          9.04461000          7.44813000
    48     3          0.10302000          7.25382000          9.89390000
    49     3          4.60747000          0.25578000          1.70498000
    50     3          4.12303000          1.85864000          4.06415000
    51     3          4.51197000          1.94653000          7.18040000
    52     3          4.35498000         10.50333000          9.97206000
    53     3          4.58929000          3.47333000          1.77591000
    54     3          4.31907000          5.14641000          3.95825000
    55     3          4.07815000          5.53369000          7.22098000
    56     3          4.48864000          4.01957000         10.10306000
    57     3          4.51064000          7.35535000          1.67148000
    58     3          4.46704000          9.25655000          3.80075000
    59     3          4.44052000          8.73452000          7.46965000
    60     3          4.54495000          6.76399000          9.82387000
    61     3          2.15441000          0.13712000          3.71405000
    62     3          6.75156000          1.89796000          2.00678000
    63     3          6.17578000          1.89487000          9.50310000
    64     3          2.36233000         10.75451000          7.93953000
    65     3          2.01907000          3.67734000          3.60671000
    66     3          6.42189000          5.44565000          2.20288000
    67     3          6.82013000          5.36012000          9.64364000
    68     3          2.39596000          3.59174000          7.95850000
    69     3          2.39404000          7.23366000          3.83117000
    70     3          6.50950000          8.98553000          1.97317000
    71     3          6.58938000          8.89892000          9.54795000
    72     3          2.00803000          7.31702000          7.54712000
    73     3          6.30093000         10.69206000          7.97257000
    74     3          6.47945000          9.09108000          5.78451000
    75     3          6.72539000          0.07543000          3.62281000
    76     3          2.10728000          1.87500000          2.15527000
    77     3          2.58203000          1.74959000          9.59588000
    78     3          6.57684000          3.57332000          3.67106000
    79     3          2.30388000          5.46109000          2.03655000
    80     3          2.15633000          5.48379000          9.35868000
    81     3          6.56835000          3.66514000          7.74399000
    82     3          6.55186000          7.26465000          3.71532000
    83     3          2.16900000          8.98048000          2.14380000
    84     3          2.29139000          8.86700000          9.47691000
    85     3          6.45073000          7.19933000          7.93132000
    86     3          2.31732000         10.68495000          0.04282000
    87     3          6.60500000          1.87622000          5.83832000
    88     3          2.39614000          3.83114000          0.02346000
    89     3          6.71533000          5.30883000          5.82055000
    90     3          2.15030000          7.15361000         11.54836000
    91     3          6.61941000          0.17700000         11.45538000
    92     3          2.15917000          2.01695000          5.95805000
    93     3          6.60031000          3.68408000          0.06214000
    94     3          2.22324000          5.17589000          5.61176000
    95     3          6.51889000          7.08294000          0.02019000
    96     3          2.52324000          9.08267000          5.77534000
